LAMMPS data file via matlab

4 atoms
1 atom types
4 bodies

-20 80 xlo xhi
-20 80 ylo yhi
-0.5 0.5 zlo zhi

Atoms # body "atom-ID atom-type bodyflag mass x y z" 

1 1 1 1 0.105218 0.186743 0 0 0 0
2 1 1 1 0.361700 5.176113 0 0 0 0
3 1 1 1 5.262783 0.142323 0 0 0 0
4 1 1 1 5.245047 5.170374 0 0 0 0

Bodies

1 1 19
4
1 1 2.67 0 0 0
2.010124 1.989825 0
1.989825 -2.010124 0
-2.010124 -1.989825 0
-1.989825 2.010124 0
0.450000
2 1 19
4
1 1 2.67 0 0 0
2.091830 1.903745 0
1.903745 -2.091830 0
-2.091830 -1.903745 0
-1.903745 2.091830 0
0.450000
3 1 19
4
1 1 2.67 0 0 0
1.876276 2.116504 0
2.116504 -1.876276 0
-1.876276 -2.116504 0
-2.116504 1.876276 0
0.450000
4 1 19
4
1 1 2.67 0 0 0
2.103660 1.890666 0
1.890666 -2.103660 0
-2.103660 -1.890666 0
-1.890666 2.103660 0
0.450000
