LAMMPS data file via matlab

64 atoms
1 atom types
64 bodies

-20 80 xlo xhi
-20 80 ylo yhi
-0.5 0.5 zlo zhi

Atoms # body "atom-ID atom-type bodyflag mass x y z" 

1 1 1 1 0.067777 0.009162 0 0 0 0
2 1 1 1 0.131212 5.223222 0 0 0 0
3 1 1 1 0.228299 10.150007 0 0 0 0
4 1 1 1 0.370710 15.143977 0 0 0 0
5 1 1 1 0.413331 20.271417 0 0 0 0
6 1 1 1 0.677014 25.182960 0 0 0 0
7 1 1 1 0.609062 30.185300 0 0 0 0
8 1 1 1 0.615445 35.257833 0 0 0 0
9 1 1 1 5.271464 0.321647 0 0 0 0
10 1 1 1 5.373925 5.253016 0 0 0 0
11 1 1 1 5.291661 10.134877 0 0 0 0
12 1 1 1 5.273336 15.151980 0 0 0 0
13 1 1 1 5.397419 20.345954 0 0 0 0
14 1 1 1 5.522616 25.088602 0 0 0 0
15 1 1 1 5.658469 30.226970 0 0 0 0
16 1 1 1 5.638664 35.130378 0 0 0 0
17 1 1 1 10.180853 0.453604 0 0 0 0
18 1 1 1 10.293365 5.373808 0 0 0 0
19 1 1 1 10.226524 10.310141 0 0 0 0
20 1 1 1 10.275225 15.301327 0 0 0 0
21 1 1 1 10.409003 20.177886 0 0 0 0
22 1 1 1 10.495633 25.364592 0 0 0 0
23 1 1 1 10.607250 30.172729 0 0 0 0
24 1 1 1 10.712357 35.181434 0 0 0 0
25 1 1 1 15.025655 0.396495 0 0 0 0
26 1 1 1 15.158745 5.269019 0 0 0 0
27 1 1 1 15.400304 10.485445 0 0 0 0
28 1 1 1 15.248766 15.485264 0 0 0 0
29 1 1 1 15.598656 20.456732 0 0 0 0
30 1 1 1 15.619099 25.284960 0 0 0 0
31 1 1 1 15.626583 30.437882 0 0 0 0
32 1 1 1 15.733558 35.395578 0 0 0 0
33 1 1 1 20.071185 0.611892 0 0 0 0
34 1 1 1 20.217655 5.514697 0 0 0 0
35 1 1 1 20.448927 10.560099 0 0 0 0
36 1 1 1 20.404042 15.456139 0 0 0 0
37 1 1 1 20.476341 20.449717 0 0 0 0
38 1 1 1 20.469478 25.567594 0 0 0 0
39 1 1 1 20.626669 30.345041 0 0 0 0
40 1 1 1 20.747218 35.359951 0 0 0 0
41 1 1 1 25.203741 0.452017 0 0 0 0
42 1 1 1 25.198655 5.517281 0 0 0 0
43 1 1 1 25.270231 10.649414 0 0 0 0
44 1 1 1 25.536395 15.641009 0 0 0 0
45 1 1 1 25.331322 20.418141 0 0 0 0
46 1 1 1 25.665550 25.519777 0 0 0 0
47 1 1 1 25.753986 30.558063 0 0 0 0
48 1 1 1 25.798855 35.525040 0 0 0 0
49 1 1 1 30.029614 0.677058 0 0 0 0
50 1 1 1 30.158561 5.668392 0 0 0 0
51 1 1 1 30.260607 10.567595 0 0 0 0
52 1 1 1 30.443918 15.609495 0 0 0 0
53 1 1 1 30.360966 20.484646 0 0 0 0
54 1 1 1 30.616368 25.775219 0 0 0 0
55 1 1 1 30.512029 30.530151 0 0 0 0
56 1 1 1 30.756127 35.511865 0 0 0 0
57 1 1 1 35.148252 0.671723 0 0 0 0
58 1 1 1 35.313716 5.619436 0 0 0 0
59 1 1 1 35.374511 10.706906 0 0 0 0
60 1 1 1 35.511116 15.661848 0 0 0 0
61 1 1 1 35.587277 20.845489 0 0 0 0
62 1 1 1 35.500249 25.836100 0 0 0 0
63 1 1 1 35.689624 30.575803 0 0 0 0
64 1 1 1 35.619343 35.781357 0 0 0 0

Bodies

1 1 19
4
1 1 2.67 0 0 0
2.078947 1.917806 0
1.917806 -2.078947 0
-2.078947 -1.917806 0
-1.917806 2.078947 0
0.450000
2 1 19
4
1 1 2.67 0 0 0
2.026753 1.972884 0
1.972884 -2.026753 0
-2.026753 -1.972884 0
-1.972884 2.026753 0
0.450000
3 1 19
4
1 1 2.67 0 0 0
1.983220 2.016640 0
2.016640 -1.983220 0
-1.983220 -2.016640 0
-2.016640 1.983220 0
0.450000
4 1 19
4
1 1 2.67 0 0 0
1.839641 2.148423 0
2.148423 -1.839641 0
-1.839641 -2.148423 0
-2.148423 1.839641 0
0.450000
5 1 19
4
1 1 2.67 0 0 0
2.028506 1.971082 0
1.971082 -2.028506 0
-2.028506 -1.971082 0
-1.971082 2.028506 0
0.450000
6 1 19
4
1 1 2.67 0 0 0
1.824479 2.161314 0
2.161314 -1.824479 0
-1.824479 -2.161314 0
-2.161314 1.824479 0
0.450000
7 1 19
4
1 1 2.67 0 0 0
2.068091 1.929508 0
1.929508 -2.068091 0
-2.068091 -1.929508 0
-1.929508 2.068091 0
0.450000
8 1 19
4
1 1 2.67 0 0 0
1.928586 2.068951 0
2.068951 -1.928586 0
-1.928586 -2.068951 0
-2.068951 1.928586 0
0.450000
9 1 19
4
1 1 2.67 0 0 0
1.941102 2.057212 0
2.057212 -1.941102 0
-1.941102 -2.057212 0
-2.057212 1.941102 0
0.450000
10 1 19
4
1 1 2.67 0 0 0
1.986296 2.013611 0
2.013611 -1.986296 0
-1.986296 -2.013611 0
-2.013611 1.986296 0
0.450000
11 1 19
4
1 1 2.67 0 0 0
1.929667 2.067943 0
2.067943 -1.929667 0
-1.929667 -2.067943 0
-2.067943 1.929667 0
0.450000
12 1 19
4
1 1 2.67 0 0 0
1.941034 2.057276 0
2.057276 -1.941034 0
-1.941034 -2.057276 0
-2.057276 1.941034 0
0.450000
13 1 19
4
1 1 2.67 0 0 0
2.109139 1.884551 0
1.884551 -2.109139 0
-2.109139 -1.884551 0
-1.884551 2.109139 0
0.450000
14 1 19
4
1 1 2.67 0 0 0
2.125543 1.866030 0
1.866030 -2.125543 0
-2.125543 -1.866030 0
-1.866030 2.125543 0
0.450000
15 1 19
4
1 1 2.67 0 0 0
1.818426 2.166409 0
2.166409 -1.818426 0
-1.818426 -2.166409 0
-2.166409 1.818426 0
0.450000
16 1 19
4
1 1 2.67 0 0 0
2.111443 1.881969 0
1.881969 -2.111443 0
-2.111443 -1.881969 0
-1.881969 2.111443 0
0.450000
17 1 19
4
1 1 2.67 0 0 0
2.156321 1.830377 0
1.830377 -2.156321 0
-2.156321 -1.830377 0
-1.830377 2.156321 0
0.450000
18 1 19
4
1 1 2.67 0 0 0
1.978524 2.021248 0
2.021248 -1.978524 0
-1.978524 -2.021248 0
-2.021248 1.978524 0
0.450000
19 1 19
4
1 1 2.67 0 0 0
1.862362 2.128758 0
2.128758 -1.862362 0
-1.862362 -2.128758 0
-2.128758 1.862362 0
0.450000
20 1 19
4
1 1 2.67 0 0 0
1.940083 2.058173 0
2.058173 -1.940083 0
-1.940083 -2.058173 0
-2.058173 1.940083 0
0.450000
21 1 19
4
1 1 2.67 0 0 0
2.105088 1.889075 0
1.889075 -2.105088 0
-2.105088 -1.889075 0
-1.889075 2.105088 0
0.450000
22 1 19
4
1 1 2.67 0 0 0
2.045229 1.953724 0
1.953724 -2.045229 0
-2.045229 -1.953724 0
-1.953724 2.045229 0
0.450000
23 1 19
4
1 1 2.67 0 0 0
2.013662 1.986244 0
1.986244 -2.013662 0
-2.013662 -1.986244 0
-1.986244 2.013662 0
0.450000
24 1 19
4
1 1 2.67 0 0 0
1.825012 2.160863 0
2.160863 -1.825012 0
-1.825012 -2.160863 0
-2.160863 1.825012 0
0.450000
25 1 19
4
1 1 2.67 0 0 0
2.116270 1.876539 0
1.876539 -2.116270 0
-2.116270 -1.876539 0
-1.876539 2.116270 0
0.450000
26 1 19
4
1 1 2.67 0 0 0
1.872130 2.120172 0
2.120172 -1.872130 0
-1.872130 -2.120172 0
-2.120172 1.872130 0
0.450000
27 1 19
4
1 1 2.67 0 0 0
1.948835 2.049889 0
2.049889 -1.948835 0
-1.948835 -2.049889 0
-2.049889 1.948835 0
0.450000
28 1 19
4
1 1 2.67 0 0 0
2.042719 1.956348 0
1.956348 -2.042719 0
-2.042719 -1.956348 0
-1.956348 2.042719 0
0.450000
29 1 19
4
1 1 2.67 0 0 0
2.104926 1.889255 0
1.889255 -2.104926 0
-2.104926 -1.889255 0
-1.889255 2.104926 0
0.450000
30 1 19
4
1 1 2.67 0 0 0
2.024887 1.974799 0
1.974799 -2.024887 0
-2.024887 -1.974799 0
-1.974799 2.024887 0
0.450000
31 1 19
4
1 1 2.67 0 0 0
2.006266 1.993715 0
1.993715 -2.006266 0
-2.006266 -1.993715 0
-1.993715 2.006266 0
0.450000
32 1 19
4
1 1 2.67 0 0 0
2.127952 1.863282 0
1.863282 -2.127952 0
-2.127952 -1.863282 0
-1.863282 2.127952 0
0.450000
33 1 19
4
1 1 2.67 0 0 0
1.968513 2.030999 0
2.030999 -1.968513 0
-1.968513 -2.030999 0
-2.030999 1.968513 0
0.450000
34 1 19
4
1 1 2.67 0 0 0
2.093259 1.902174 0
1.902174 -2.093259 0
-2.093259 -1.902174 0
-1.902174 2.093259 0
0.450000
35 1 19
4
1 1 2.67 0 0 0
2.039867 1.959322 0
1.959322 -2.039867 0
-2.039867 -1.959322 0
-1.959322 2.039867 0
0.450000
36 1 19
4
1 1 2.67 0 0 0
1.970824 2.028757 0
2.028757 -1.970824 0
-1.970824 -2.028757 0
-2.028757 1.970824 0
0.450000
37 1 19
4
1 1 2.67 0 0 0
2.084733 1.911515 0
1.911515 -2.084733 0
-2.084733 -1.911515 0
-1.911515 2.084733 0
0.450000
38 1 19
4
1 1 2.67 0 0 0
2.071796 1.925529 0
1.925529 -2.071796 0
-2.071796 -1.925529 0
-1.925529 2.071796 0
0.450000
39 1 19
4
1 1 2.67 0 0 0
1.958713 2.040452 0
2.040452 -1.958713 0
-1.958713 -2.040452 0
-2.040452 1.958713 0
0.450000
40 1 19
4
1 1 2.67 0 0 0
2.080232 1.916413 0
1.916413 -2.080232 0
-2.080232 -1.916413 0
-1.916413 2.080232 0
0.450000
41 1 19
4
1 1 2.67 0 0 0
1.883627 2.109964 0
2.109964 -1.883627 0
-1.883627 -2.109964 0
-2.109964 1.883627 0
0.450000
42 1 19
4
1 1 2.67 0 0 0
1.824626 2.161190 0
2.161190 -1.824626 0
-1.824626 -2.161190 0
-2.161190 1.824626 0
0.450000
43 1 19
4
1 1 2.67 0 0 0
1.918035 2.078736 0
2.078736 -1.918035 0
-1.918035 -2.078736 0
-2.078736 1.918035 0
0.450000
44 1 19
4
1 1 2.67 0 0 0
2.053748 1.944767 0
1.944767 -2.053748 0
-2.053748 -1.944767 0
-1.944767 2.053748 0
0.450000
45 1 19
4
1 1 2.67 0 0 0
1.970440 2.029129 0
2.029129 -1.970440 0
-1.970440 -2.029129 0
-2.029129 1.970440 0
0.450000
46 1 19
4
1 1 2.67 0 0 0
2.132123 1.858508 0
1.858508 -2.132123 0
-2.132123 -1.858508 0
-1.858508 2.132123 0
0.450000
47 1 19
4
1 1 2.67 0 0 0
1.853264 2.136683 0
2.136683 -1.853264 0
-1.853264 -2.136683 0
-2.136683 1.853264 0
0.450000
48 1 19
4
1 1 2.67 0 0 0
1.863184 2.128038 0
2.128038 -1.863184 0
-1.863184 -2.128038 0
-2.128038 1.863184 0
0.450000
49 1 19
4
1 1 2.67 0 0 0
1.886063 2.107788 0
2.107788 -1.886063 0
-1.886063 -2.107788 0
-2.107788 1.886063 0
0.450000
50 1 19
4
1 1 2.67 0 0 0
2.081754 1.914759 0
1.914759 -2.081754 0
-2.081754 -1.914759 0
-1.914759 2.081754 0
0.450000
51 1 19
4
1 1 2.67 0 0 0
1.966794 2.032664 0
2.032664 -1.966794 0
-1.966794 -2.032664 0
-2.032664 1.966794 0
0.450000
52 1 19
4
1 1 2.67 0 0 0
2.159541 1.826577 0
1.826577 -2.159541 0
-2.159541 -1.826577 0
-1.826577 2.159541 0
0.450000
53 1 19
4
1 1 2.67 0 0 0
2.025919 1.973741 0
1.973741 -2.025919 0
-2.025919 -1.973741 0
-1.973741 2.025919 0
0.450000
54 1 19
4
1 1 2.67 0 0 0
2.064293 1.933570 0
1.933570 -2.064293 0
-2.064293 -1.933570 0
-1.933570 2.064293 0
0.450000
55 1 19
4
1 1 2.67 0 0 0
2.114606 1.878415 0
1.878415 -2.114606 0
-2.114606 -1.878415 0
-1.878415 2.114606 0
0.450000
56 1 19
4
1 1 2.67 0 0 0
2.108930 1.884784 0
1.884784 -2.108930 0
-2.108930 -1.884784 0
-1.884784 2.108930 0
0.450000
57 1 19
4
1 1 2.67 0 0 0
2.026736 1.972902 0
1.972902 -2.026736 0
-2.026736 -1.972902 0
-1.972902 2.026736 0
0.450000
58 1 19
4
1 1 2.67 0 0 0
2.136509 1.853464 0
1.853464 -2.136509 0
-2.136509 -1.853464 0
-1.853464 2.136509 0
0.450000
59 1 19
4
1 1 2.67 0 0 0
1.965315 2.034094 0
2.034094 -1.965315 0
-1.965315 -2.034094 0
-2.034094 1.965315 0
0.450000
60 1 19
4
1 1 2.67 0 0 0
2.010124 1.989825 0
1.989825 -2.010124 0
-2.010124 -1.989825 0
-1.989825 2.010124 0
0.450000
61 1 19
4
1 1 2.67 0 0 0
1.930445 2.067216 0
2.067216 -1.930445 0
-1.930445 -2.067216 0
-2.067216 1.930445 0
0.450000
62 1 19
4
1 1 2.67 0 0 0
1.929023 2.068543 0
2.068543 -1.929023 0
-1.929023 -2.068543 0
-2.068543 1.929023 0
0.450000
63 1 19
4
1 1 2.67 0 0 0
1.951064 2.047767 0
2.047767 -1.951064 0
-1.951064 -2.047767 0
-2.047767 1.951064 0
0.450000
64 1 19
4
1 1 2.67 0 0 0
2.156001 1.830754 0
1.830754 -2.156001 0
-2.156001 -1.830754 0
-1.830754 2.156001 0
0.450000
